Title: KiCad schematic
Date: Sat Nov 25 11:12:31  2023
Plotname: Transient Analysis
Flags: real
No. Variables: 1308
No. Points: 0       
Variables:
